ITEM: TIMESTEP
0
ITEM: NUMBER OF ATOMS
64
ITEM: BOX BOUNDS pp pp pp
-7.4496635722045568e-03 6.7466464635722039e+00
-7.4496635722045568e-03 6.7466464635722039e+00
-7.4496635722045568e-03 6.7466464635722039e+00
ITEM: ATOMS id type x y z vx vy vz
3 2 0.0397059 0.0283979 0.118338 -8.14736 12.4377 -0.234439
6 1 1.93755 1.76242 1.59194 -15.4647 -14.0558 -0.281652
7 2 0.211105 1.79467 1.70254 -3.25223 -4.89627 -45.3695
12 2 1.81734 1.8356 3.15635 -13.0215 -15.4978 18.0999
10 1 0.343123 1.705 3.46329 23.7661 -11.2508 -11.0274
9 1 1.6984 0.0997549 3.35204 -8.72451 13.2923 26.3919
43 2 3.31069 0.0142592 3.28778 -16.2961 4.53256 9.29074
32 2 1.58874 3.28052 4.98732 -42.3224 -10.5279 1.10086
15 2 0.307242 1.59478 5.06019 -9.758 8.46526 14.8534
14 1 1.89348 1.61463 5.09244 5.2676 8.32312 11.7288
4 2 1.83339 1.57071 6.69156 27.9276 21.3836 18.7238
17 1 1.45482 3.20069 6.63458 -6.03336 -18.4987 1.02322
2 1 0.241788 1.6908 6.69045 26.5118 -11.7768 -12.3928
51 2 3.13761 3.41274 0.0931499 -7.22249 -3.86531 -34.0441
1 1 1.69979 6.74335 0.0816924 -8.24524 -24.5227 -12.5047
20 2 1.61273 5.06115 0.100172 14.9139 5.87479 0.838974
55 2 3.17207 5.08774 1.86301 32.458 -4.00572 -0.784869
22 1 1.51376 5.14621 1.6231 8.04722 3.87141 9.31996
24 2 1.5078 3.52993 1.69677 -3.8872 -18.25 -21.9425
37 1 3.11946 6.73239 1.6654 -8.99174 19.4931 27.1309
8 2 1.60611 6.71996 1.72547 35.8625 5.77034 30.0659
21 1 0.0388135 3.37397 1.90893 4.05487 3.09695 0.92283
28 2 1.7327 5.1255 3.31843 -28.0357 -8.2903 6.01677
25 1 1.53728 3.53722 3.29214 23.3159 -28.6827 -8.40665
59 2 3.34293 3.43301 3.40551 5.23342 17.1088 2.00361
30 1 1.58813 5.03657 5.04859 -13.5967 6.82189 7.91113
61 1 3.23894 3.53729 4.97394 -0.948564 -0.332937 4.68843
13 1 0.0928904 6.7036 5.25194 5.92537 9.85552 -1.50273
63 2 3.05015 5.20488 5.08694 -7.0051 8.8086 -3.86836
16 2 1.67427 6.58664 4.88645 -4.38006 -13.0462 -17.7112
50 1 3.19834 5.22627 6.68906 -10.1012 13.2463 3.46031
19 2 6.62337 3.25828 0.168699 4.4053 -14.1303 15.1803
38 1 5.33193 1.62629 1.70661 8.50486 1.86959 4.11791
56 2 4.95473 3.20791 1.57118 3.80246 17.1277 8.29723
39 2 3.53419 1.60923 1.48935 -39.6496 -4.14303 -11.2376
40 2 4.94375 0.0403419 1.79023 -7.18883 9.07549 -28.7851
44 2 5.47464 1.74447 3.31211 22.7956 -12.3102 12.3005
57 1 4.97581 3.33451 3.20348 5.80871 10.9499 1.33292
42 1 3.61729 1.54028 3.16008 -7.30742 8.82235 0.891126
11 2 6.69558 0.0759532 3.3981 17.169 8.25217 -14.371
46 1 5.58827 1.62261 4.96631 -21.553 8.52953 -25.393
47 2 3.59222 1.67931 4.98626 2.01122 -1.75208 8.88384
64 2 4.77342 3.12986 5.03303 2.85251 -41.9369 -10.5168
34 1 3.42907 1.71026 6.586 2.12611 -17.9549 12.385
36 2 5.25303 1.56458 6.52055 -17.3613 -3.69541 -0.298912
49 1 4.79902 3.33708 6.61222 -0.941831 10.7732 2.37434
33 1 5.04485 -0.0070102 6.6905 2.25604 5.48122 -9.13211
52 2 4.70042 5.01288 -0.00180448 7.09385 -35.7453 -14.9164
18 1 6.56768 5.07259 0.15655 4.91295 26.9163 -3.84085
35 2 3.39846 6.74631 0.129959 2.48978 24.1762 18.1277
23 2 6.59502 5.04524 1.69697 4.75028 23.3215 31.3735
54 1 5.01027 5.11222 1.71526 7.83155 21.0976 -2.95227
53 1 3.39128 3.38366 1.68363 12.6896 -16.4792 -28.3795
5 1 6.58807 6.74621 1.81772 -17.5049 -23.188 12.0318
60 2 5.12738 4.95474 3.50148 -14.5968 18.6591 1.73781
58 1 3.46198 5.13747 3.51169 -6.87001 25.5113 6.7244
26 1 6.73041 5.11047 3.38422 10.0018 -13.3445 0.452291
41 1 4.96008 6.56505 3.43528 9.18466 11.5315 -7.37999
27 2 6.62771 3.50608 3.45037 -12.4049 22.347 -7.55891
62 1 4.95758 4.82655 5.10546 10.7705 -17.7097 1.03849
31 2 6.5174 5.1423 5.25631 -25.4195 -17.0932 19.3245
29 1 6.66997 3.52479 5.14499 7.27026 -10.5248 -13.2276
48 2 5.16272 6.72461 4.97921 6.65564 1.27446 -18.0259
45 1 3.5432 6.65098 5.00165 -6.1939 -0.78592 11.3466
ITEM: TIMESTEP
100
ITEM: NUMBER OF ATOMS
64
ITEM: BOX BOUNDS pp pp pp
-6.4283073755349029e-03 6.7456251073755293e+00
-6.4283073755349029e-03 6.7456251073755293e+00
-6.4283073755349029e-03 6.7456251073755293e+00
ITEM: ATOMS id type x y z vx vy vz
6 1 1.44312 1.63976 1.59813 9.23566 -23.8455 -16.351
39 2 3.33859 1.75211 1.69077 -1.06029 3.22292 45.6328
8 2 1.43813 0.0456289 1.67544 14.8566 -18.9601 -25.5312
24 2 1.59383 3.26417 1.63666 -15.6951 3.1622 -3.804
53 1 3.29593 3.31639 1.57929 -9.20897 2.58227 -5.85015
37 1 3.2677 0.0860608 1.73645 -3.41059 5.72495 -1.11617
12 2 1.7226 1.75436 3.26687 16.3939 5.16291 -8.12665
10 1 0.00957643 1.91692 3.48039 7.12669 12.023 1.43568
14 1 1.87326 1.82837 5.04924 4.59613 7.04828 4.13694
61 1 3.10247 3.34238 5.14038 10.7869 -4.87254 -2.07457
15 2 0.253851 1.66448 5.28975 42.1303 -23.9273 -27.3743
16 2 1.94251 0.251417 4.82515 -7.22832 4.06689 1.4458
1 1 1.68936 0.219332 6.60759 9.08351 1.82534 18.1235
2 1 0.0293484 1.81169 6.73597 4.32733 7.69956 17.5725
51 2 3.19577 3.19792 6.68715 6.77504 1.22979 3.18861
35 2 3.23919 0.0109368 6.74113 -6.51963 -7.95631 -3.26011
4 2 1.74225 1.79176 6.72548 10.9448 -3.54476 -2.2103
18 1 0.0169118 5.26005 0.0842753 4.11762 6.70958 -10.3543
22 1 1.83383 4.92708 1.52357 -19.4176 14.9864 17.1706
23 2 0.119998 4.99695 1.52327 -38.4568 -15.8967 -8.16205
28 2 1.77763 4.99144 3.218 10.6245 -30.3836 16.072
9 1 1.60172 6.64632 3.25915 0.34365 3.77857 -1.78282
25 1 1.72245 3.3759 3.16909 -23.9275 -0.577877 -26.4984
43 2 3.33833 6.63875 3.35295 15.7924 11.9005 14.4071
30 1 1.99152 5.079 4.8131 -5.27911 9.13362 -1.86
32 2 1.5091 3.46469 5.01254 9.151 20.0011 -20.1767
31 2 0.0542999 5.13216 5.03808 -26.444 -0.920122 41.7063
20 2 1.79124 5.24508 6.58672 8.53247 14.1623 13.5216
17 1 1.45461 3.66854 6.72687 -8.94329 16.5907 -4.20113
49 1 4.96172 3.27212 0.2857 -1.23224 8.78413 -11.5291
3 2 6.69236 0.162274 0.0902161 7.42617 -1.19133 7.02536
34 1 3.58895 1.73018 0.186805 -15.8216 -17.3098 -7.42847
38 1 4.96636 1.4532 1.79351 10.6127 0.0745997 -4.3116
7 2 6.67728 1.79685 1.91133 -14.6162 -9.39075 -23.0613
5 1 6.61613 0.036516 1.57864 -2.81951 2.87826 -8.49815
56 2 4.90315 3.17223 1.92852 -14.5326 -13.7737 -15.369
44 2 5.02672 1.53943 3.37938 12.9373 -1.92982 -7.94475
57 1 4.92564 3.16053 3.67279 5.55658 18.8174 12.789
42 1 3.49471 1.67431 3.30055 15.2878 14.6854 -0.0133734
59 2 3.48144 3.26709 3.23729 -11.2048 -4.03746 12.9664
46 1 5.25595 1.66816 4.99836 5.31337 -7.59334 3.78096
45 1 3.52848 0.0225257 5.1254 -23.5475 -17.4287 -6.79694
47 2 3.45634 1.64313 5.13054 4.41161 -8.42112 -3.08745
64 2 4.93382 3.19454 5.43046 13.5234 23.3681 -6.70051
13 1 6.71431 0.160206 4.95306 22.0157 9.24723 -2.29524
29 1 6.55463 3.32907 5.32404 -13.6805 -5.185 24.8956
33 1 5.10389 0.00747617 6.49981 -3.34902 -7.94292 -1.68395
36 2 5.18513 1.78947 6.73132 -5.654 -15.8345 -1.38628
19 2 6.63316 3.49364 0.0355202 15.4223 20.7659 5.47971
52 2 5.1331 5.18356 -0.00194574 -7.99597 -10.3053 -13.6221
55 2 3.51708 5.07402 1.57541 -5.37587 -21.3403 6.46156
54 1 5.1659 4.88266 1.72681 -17.0506 8.16217 22.7071
40 2 4.93304 6.68726 1.62191 12.4997 20.2177 6.97966
21 1 6.6452 3.55766 1.86056 16.241 8.51898 12.1639
60 2 5.13186 4.90019 3.39367 18.5649 -9.8752 21.4617
41 1 4.98179 6.5651 3.29128 -1.07813 -11.9775 -10.6096
58 1 3.37605 4.96636 3.23225 2.14466 -1.67324 -13.926
11 2 6.56739 6.57172 3.3096 2.39788 12.8046 -8.1109
27 2 6.56313 3.4656 3.736 7.00432 -4.16667 8.74822
26 1 6.72283 4.90733 3.38915 -9.89826 -22.9416 10.871
62 1 5.109 4.7652 5.0764 -31.9655 -8.41545 5.61095
48 2 5.08763 6.56243 5.00968 27.2901 -13.2372 -2.31265
63 2 3.56997 5.06489 4.94291 14.7684 31.4438 -16.7223
50 1 3.55514 5.08416 6.68015 -12.956 -0.817034 -19.4312
ITEM: TIMESTEP
200
ITEM: NUMBER OF ATOMS
64
ITEM: BOX BOUNDS pp pp pp
1.5291624417246297e-04 6.7390438837558175e+00
1.5291624417246297e-04 6.7390438837558175e+00
1.5291624417246297e-04 6.7390438837558175e+00
ITEM: ATOMS id type x y z vx vy vz
34 1 3.20638 1.6841 0.259709 3.0616 -1.3008 3.00835
4 2 1.46794 1.58057 0.0484643 4.11545 -6.53876 19.8648
6 1 1.63445 1.68453 1.66904 -3.44792 26.1918 -10.5011
37 1 3.30176 0.0754597 1.90218 6.95918 -17.7169 -6.44305
7 2 0.132917 1.64411 1.69349 -9.56502 -7.6809 16.5907
39 2 3.34736 1.61946 1.91676 27.7287 7.8673 0.748649
12 2 1.42884 1.70117 3.28204 -23.7359 31.398 -3.68896
25 1 1.67297 3.32504 3.10882 1.44062 2.47282 2.7028
42 1 3.22874 1.71933 3.52492 6.20945 13.339 6.88829
9 1 1.62205 0.101687 3.64095 38.2379 5.56242 -12.1213
59 2 3.23724 3.3532 3.33675 1.71782 -6.64923 -6.45834
14 1 1.65115 1.75757 5.05697 -13.7047 -7.41019 -12.7986
45 1 3.12581 0.101492 5.17559 9.58425 4.77044 3.90886
17 1 1.69601 3.22802 6.56267 6.27719 -5.60472 -5.76983
51 2 3.30062 3.3445 6.73649 -10.233 -15.0435 -0.853902
19 2 0.101112 3.43213 0.0315741 25.584 9.60634 -28.6723
1 1 1.60721 6.52775 0.190837 -5.30778 16.6408 3.62636
22 1 1.9594 5.01076 1.66235 -5.30431 -15.5747 -9.59529
23 2 0.217602 4.98071 1.59778 -5.18126 -1.20822 3.22483
24 2 1.79242 3.37363 1.51825 -5.32918 17.2346 22.7923
21 1 0.227283 3.51533 1.76433 -15.259 -6.43265 3.25833
8 2 1.50846 6.66854 2.01105 13.5824 0.305634 6.47095
28 2 1.85975 5.04521 3.39371 -29.6896 -5.34008 -2.6604
26 1 0.236322 5.00604 3.47058 -10.6807 -6.80489 -5.31664
31 2 0.0350227 5.11385 5.05955 -6.70791 -9.89498 -17.3936
30 1 1.68387 4.96643 5.01301 -5.95122 -13.7851 -5.29354
61 1 3.33413 3.50112 5.08128 36.1408 21.0765 -14.5444
32 2 1.66089 3.38687 4.84124 -5.8888 28.4122 -5.69343
16 2 1.56863 6.71372 5.25219 7.69046 -12.0442 -24.1736
18 1 0.298312 5.2141 6.72002 3.05903 -8.93514 24.8284
20 2 1.82682 4.90141 6.72897 35.2895 25.1192 -11.9077
36 2 5.02807 1.6673 0.0630246 -9.25491 5.01288 -13.2293
38 1 5.14321 1.84883 1.65017 -20.9037 3.95285 8.81074
40 2 4.90289 0.108398 1.62652 14.72 20.8253 -21.4007
53 1 3.46532 3.2143 1.69238 -15.9733 8.27256 9.176
44 2 4.79028 1.88442 3.3197 2.56686 12.7742 31.594
43 2 3.39662 0.0886843 3.50102 -8.79968 -18.3834 -6.95657
10 1 6.48893 1.71218 3.27145 -3.88707 -10.1405 -20.0198
41 1 4.89213 0.209201 3.408 2.89941 25.3443 -11.6824
29 1 6.62836 3.27569 5.11982 -19.137 -0.260137 0.236239
47 2 3.43163 1.81051 5.30255 -17.1563 -14.7037 -9.10855
15 2 6.70589 1.53141 4.88134 -8.14121 -10.1563 -4.19453
64 2 5.07959 3.25909 5.06157 6.28964 -22.4298 10.9038
13 1 6.57001 0.0457136 4.93512 -6.08514 4.73008 9.27728
46 1 5.07316 1.52917 4.97282 9.23683 -3.87093 37.0346
2 1 6.5976 1.65472 6.50979 6.78089 25.2371 2.22954
3 2 6.63575 0.109689 6.53338 -19.1187 17.5454 34.1747
49 1 5.10263 3.23254 6.70696 -9.98285 -11.8147 -10.6574
35 2 3.39691 6.63377 0.178622 -24.3233 -6.96059 -2.63489
50 1 3.5833 4.91198 0.0403656 -2.57306 -5.39876 18.9654
56 2 5.24693 3.40832 1.69602 -10.1117 17.4188 -16.2519
54 1 5.33545 5.29945 1.4813 -7.75536 -34.4866 -15.4901
55 2 3.69137 5.01042 1.61004 19.2442 -3.73464 -11.6328
5 1 6.4768 6.69114 1.65197 0.29851 10.039 -23.2755
60 2 5.17314 5.18761 3.23416 13.0187 -4.76118 -4.29606
58 1 3.55195 5.10711 3.35887 2.31726 -5.12602 12.4005
27 2 6.63458 3.37884 3.3452 1.22218 -13.2755 31.1887
57 1 5.02244 3.57946 3.24472 14.0061 -9.75422 13.0056
11 2 6.55319 6.6309 3.30128 11.0798 -8.00661 -12.5597
62 1 5.07723 5.02234 4.98254 6.06119 -18.2464 -2.38123
63 2 3.39495 5.04822 5.19507 7.82409 1.45704 -4.15171
48 2 5.03589 6.62305 5.02733 -1.90755 -0.951307 12.8476
33 1 4.98726 6.53014 6.65822 6.01354 4.20312 14.8797
52 2 5.37209 5.03095 6.62096 -15.7173 -10.7612 4.83793
ITEM: TIMESTEP
300
ITEM: NUMBER OF ATOMS
64
ITEM: BOX BOUNDS pp pp pp
4.6491022189520947e-03 6.7345476977810357e+00
4.6491022189520947e-03 6.7345476977810357e+00
4.6491022189520947e-03 6.7345476977810357e+00
ITEM: ATOMS id type x y z vx vy vz
4 2 1.94711 1.66968 0.0462594 -13.5083 -22.9062 -10.9006
1 1 1.44847 0.0322972 0.123265 -2.06136 2.91722 8.78817
6 1 1.95234 1.54733 1.76276 8.05647 1.70806 20.8087
53 1 3.19367 3.21933 1.58186 -5.87094 4.49068 -2.41741
5 1 0.0812807 0.0894582 1.68606 -9.77293 38.8126 4.34947
12 2 1.62419 1.49849 3.39269 -16.2327 17.0378 -6.23126
25 1 1.40506 3.16541 3.37716 6.07746 5.88205 -23.4546
10 1 0.0848467 1.45601 3.28877 -13.962 14.2471 10.1461
43 2 3.30407 0.137073 3.46304 6.29524 16.8685 -3.67715
14 1 1.97855 1.76983 5.0803 -50.5797 -25.9284 -19.7748
45 1 3.21718 0.157873 5.19972 -10.8733 -17.9649 14.3266
32 2 1.75418 3.30913 4.88136 22.7771 -23.5044 18.5556
2 1 0.199338 1.77181 6.5868 0.979537 -10.135 -1.2773
17 1 1.6677 3.26235 6.62962 20.4871 0.786021 16.9689
51 2 3.3523 3.35314 6.46894 -25.4647 2.52633 10.0523
20 2 1.58491 4.94678 0.1843 -10.914 -3.99796 18.9006
35 2 3.16263 6.67358 0.0617038 1.45587 8.44792 35.0583
24 2 1.64357 3.41222 1.64567 -11.8041 6.33911 -10.686
8 2 1.82132 6.5956 1.83748 6.23003 8.10188 10.067
23 2 0.149101 5.10476 1.83502 -19.2311 -40.5057 -32.1441
21 1 0.0467123 3.42454 1.76015 31.2318 -5.35416 -15.7143
22 1 1.76355 4.87265 1.93529 3.91255 -6.91791 -7.93929
28 2 1.63315 4.93966 3.54313 24.0848 -6.77391 22.8725
58 1 3.24211 5.2447 3.44338 5.00896 20.4575 11.3931
9 1 1.56992 6.56506 3.67333 -14.7044 -15.0007 2.89457
11 2 0.0207016 6.55468 3.38644 -15.6303 11.3848 -5.58677
59 2 3.20598 3.63448 3.17602 -0.7241 26.6449 -9.16164
63 2 3.25472 5.23441 5.09184 4.1423 3.3142 -16.6098
30 1 1.74281 4.98677 5.17877 6.78658 10.6476 6.94997
61 1 3.30897 3.53822 4.87318 0.463952 -9.20762 -3.31702
31 2 0.103207 5.0842 5.0405 2.67423 14.6906 -14.7166
16 2 1.63369 6.65168 5.2928 6.28599 19.1663 -18.8553
50 1 3.21462 4.95966 6.63923 6.07733 -6.5329 -1.10776
36 2 5.32159 1.66649 0.0861734 -0.734967 -6.78417 -23.6056
3 2 6.59023 0.0949656 0.0296499 16.0956 29.9427 0.655465
19 2 6.61891 3.25805 0.207841 20.5516 -12.631 -14.3118
34 1 3.608 1.62978 0.0618044 -2.62074 -4.43747 12.6534
38 1 5.00079 1.94729 1.64181 -17.002 -6.3986 -8.27152
39 2 3.46651 1.51017 1.56811 -16.8256 3.42086 10.3412
40 2 5.0522 0.0883223 1.62729 5.65133 -6.0718 -8.62277
7 2 6.67246 1.77671 1.60941 -11.3015 -9.73586 0.747522
44 2 5.2009 1.72774 3.42753 4.96765 -36.527 17.5535
42 1 3.46068 1.70534 3.29838 0.284018 18.0806 -1.24033
41 1 4.88932 0.0337625 3.19988 0.235243 -2.46173 31.2407
57 1 4.91007 3.31818 3.39024 -9.76619 8.64487 -17.0485
15 2 6.68481 1.72987 4.8057 10.3425 -7.61682 -14.1507
47 2 3.66235 1.79488 5.15295 8.70495 -28.5449 15.4561
46 1 5.16843 1.68311 5.057 -14.5985 -0.726971 -11.1661
29 1 6.68512 3.34849 4.94399 3.38837 -1.48582 -1.17645
49 1 5.05902 3.4622 0.0261975 14.695 7.49282 -29.1802
18 1 6.71195 5.01995 0.0884531 -0.357712 -26.7622 2.72517
37 1 3.4854 6.58159 1.75385 -8.36658 -5.26373 -3.05895
54 1 5.23699 5.32746 1.62745 12.4759 8.14431 -5.73195
55 2 3.47241 5.02666 1.69983 2.80579 -2.97964 15.7011
56 2 4.97873 3.53445 1.68458 10.8099 -4.56736 3.97138
60 2 4.87208 5.1062 3.25476 -19.0164 -5.7151 -4.32588
27 2 6.72383 3.40945 3.37967 -1.64753 -3.94616 -2.39689
26 1 6.62246 5.07876 3.33458 2.66072 -10.779 9.8166
62 1 5.24606 5.23895 4.95813 8.21497 23.5937 -8.63794
48 2 4.83417 6.66555 4.82285 -8.15691 25.5889 3.40692
64 2 5.0265 3.47803 4.95529 27.414 16.7533 18.8598
13 1 6.72928 6.65545 5.08821 -6.89365 0.248563 -10.1732
33 1 4.96746 6.65374 6.61193 30.1029 4.09246 18.7735
52 2 5.07665 5.01114 6.59551 -0.539583 -10.0381 -7.95903
ITEM: TIMESTEP
400
ITEM: NUMBER OF ATOMS
64
ITEM: BOX BOUNDS pp pp pp
-4.7447007271590458e-03 6.7439415007271499e+00
-4.7447007271590458e-03 6.7439415007271499e+00
-4.7447007271590458e-03 6.7439415007271499e+00
ITEM: ATOMS id type x y z vx vy vz
5 1 0.0458642 0.204858 1.49538 -19.8683 -23.8426 11.2648
6 1 1.89235 1.76638 1.49404 9.29869 -1.34434 1.90351
7 2 0.260614 1.83619 1.67807 29.2337 -14.0197 21.2329
24 2 1.67356 3.34979 1.84273 12.0716 10.0813 16.7593
8 2 1.6973 0.109632 1.53384 14.7568 26.1878 -10.0994
12 2 1.83479 1.59373 3.27113 8.23317 5.70734 -22.3736
42 1 3.36339 1.68072 3.36142 29.5383 -35.6763 -15.3455
27 2 0.0785687 3.09709 3.48644 5.54283 13.6334 24.1484
43 2 3.33526 0.0304288 3.27967 18.9136 30.653 -6.99872
14 1 1.88256 1.80357 4.814 -3.8692 6.78419 0.854505
13 1 0.0808291 0.17325 4.68082 18.4802 -4.38916 -13.2361
32 2 1.81406 3.28717 5.19339 5.4421 -0.0952174 -6.15337
16 2 1.73815 0.328922 5.09298 -26.9348 3.2199 -5.83576
35 2 3.19093 0.00862371 6.64062 3.19978 -13.8237 28.2013
4 2 1.49294 1.96939 6.63398 4.55055 -31.2489 -3.68628
1 1 1.40437 0.0851379 6.67536 8.01946 -5.69507 -12.7257
34 1 3.28046 1.68989 6.66029 -21.523 -21.4544 -1.6369
17 1 1.53998 3.52239 0.177164 6.83735 -10.721 24.1489
51 2 3.12616 3.38895 0.100469 -7.34553 13.6383 -3.47501
23 2 0.0214606 5.25767 1.69675 -9.39516 -6.68191 -5.879
22 1 1.61417 5.11963 1.70848 -14.6961 -10.3254 -1.5915
53 1 3.17764 3.50156 1.62016 -20.8613 -23.6874 5.56147
28 2 1.72148 5.12105 3.57526 5.86422 -3.35509 29.3122
26 1 0.15471 4.78066 3.27434 7.86159 -13.19 6.48919
9 1 1.66652 6.70153 3.31246 -27.172 14.6841 -2.22562
11 2 0.0346432 6.6639 3.19601 10.8662 -5.5966 6.73587
25 1 1.8757 3.59276 3.57608 16.5819 9.94011 10.4185
30 1 1.69347 5.38732 5.22103 9.34915 -2.07049 11.9487
31 2 0.00293769 5.14885 5.08866 -5.63639 0.140215 -0.783664
63 2 3.31175 5.05013 5.04447 -39.4755 -10.2023 8.07158
29 1 0.177174 3.56524 5.24352 6.19277 14.0224 -33.5337
50 1 3.21204 5.01968 6.60808 -3.50214 10.3569 -2.47205
20 2 1.50177 5.03027 6.74142 2.66821 -27.7466 -35.819
49 1 4.68569 3.17468 0.194588 6.29837 -10.6507 -10.0351
36 2 5.15583 1.5943 0.320574 -4.81635 16.5689 12.9049
2 1 6.70055 1.95081 0.169897 23.2198 4.11976 14.1722
37 1 3.41152 0.015336 1.57065 24.7504 16.2501 -1.0478
39 2 3.62343 1.68155 1.65419 -22.636 33.3243 -1.0817
56 2 4.98203 3.1823 1.69745 -30.3556 -17.4773 -11.302
38 1 5.19804 1.51945 1.98725 16.7056 4.81678 22.8291
44 2 5.05648 1.47221 3.62627 -7.61067 35.7949 4.58431
57 1 5.04748 3.22113 3.48013 -23.218 17.9599 -7.574
10 1 6.71573 1.6628 3.44296 2.89085 -3.10361 4.79086
59 2 3.40834 3.18084 3.10432 -10.2107 -25.3684 -29.6621
47 2 3.55141 1.72462 5.13513 9.50762 -3.17556 -13.4387
46 1 5.19023 1.50557 5.22388 5.72479 20.0753 -19.3119
64 2 5.28788 3.19598 5.09303 -18.1211 -2.6282 -1.26831
45 1 3.37436 0.132843 4.9167 8.15079 -0.33709 -19.8948
15 2 6.72458 1.82656 5.03096 -13.9377 -4.23978 -2.5415
3 2 6.52593 0.211977 6.51844 1.97017 0.651906 11.3172
19 2 6.40297 3.4851 0.259846 6.48208 17.0533 -12.0284
18 1 6.51042 5.08436 0.0498374 -14.1111 18.6859 -9.55886
55 2 3.51389 4.90777 1.65056 9.18672 -1.81184 0.724801
54 1 5.23737 4.82772 1.66655 1.72704 4.97541 -2.3343
40 2 4.97378 6.51648 1.68354 -7.92243 10.3519 16.9344
21 1 6.55655 3.46273 1.8605 7.46242 17.7374 17.6051
60 2 5.15762 4.81513 3.33293 -13.498 -2.50094 0.00624699
58 1 3.54631 4.9986 3.37009 -2.27431 -6.67447 3.64408
41 1 5.04326 6.46885 3.19283 -10.2926 -2.5697 -13.8995
62 1 4.99521 4.88914 5.01816 -3.79786 -24.0247 -7.74806
48 2 4.99174 6.48644 4.90963 -12.6243 -11.6237 16.5676
61 1 3.56533 3.39388 4.93369 1.20719 6.16028 31.0345
33 1 4.90859 6.58006 6.65316 3.21633 9.72058 6.60589
52 2 5.0066 4.91159 6.7269 8.6163 0.239123 -23.7069
ITEM: TIMESTEP
500
ITEM: NUMBER OF ATOMS
64
ITEM: BOX BOUNDS pp pp pp
-3.2663687798173413e-03 6.7424631687798202e+00
-3.2663687798173413e-03 6.7424631687798202e+00
-3.2663687798173413e-03 6.7424631687798202e+00
ITEM: ATOMS id type x y z vx vy vz
4 2 1.90929 1.7375 0.215715 -2.06081 -9.93347 -36.3916
6 1 1.64266 1.95938 1.82576 -20.6801 -22.2026 -14.6567
8 2 1.4798 0.0848224 1.59049 -19.983 13.2659 -15.9303
39 2 3.35894 1.68815 1.7768 2.71257 -5.92071 -10.0266
12 2 1.45673 1.72371 3.49822 18.3826 6.71965 42.0336
42 1 3.18458 1.44374 3.38596 11.5644 5.01963 2.04143
14 1 1.43523 1.63205 5.11637 29.0215 -12.8442 -1.36344
47 2 3.13853 1.92891 5.07827 7.00675 14.952 -2.42325
45 1 3.32659 0.240606 5.17131 -28.9237 -9.54744 6.16329
13 1 0.0476254 0.0545435 4.84869 20.6009 26.0154 10.5472
29 1 0.0492102 3.29418 4.98648 -20.2805 -3.48171 -4.77183
3 2 0.207118 0.0641535 6.57406 -3.45393 -13.4528 10.3063
2 1 0.094468 1.88028 6.65365 13.3025 9.1487 20.6012
51 2 3.32837 3.27585 6.48158 -23.7072 19.1922 -24.8757
1 1 1.81293 0.104421 6.66555 3.68318 -4.24986 -5.96853
20 2 1.73208 5.11889 0.232858 -4.92703 -7.6829 5.03015
18 1 0.158603 5.09537 0.0880517 -11.1515 17.114 -10.8376
21 1 0.291694 3.4009 1.69266 -19.6706 6.51829 -11.618
24 2 1.81927 3.47097 1.51648 -14.9995 14.182 -17.9669
37 1 3.18838 6.72061 1.72054 35.4755 18.4188 1.58804
23 2 0.050532 4.92999 1.70524 11.4491 22.1174 44.2864
55 2 3.30681 4.98676 1.67661 -26.5606 9.02208 23.387
22 1 1.78167 5.27124 1.97171 22.6735 8.64185 1.49794
28 2 1.58935 5.06254 3.55162 6.77201 5.32502 -15.2998
58 1 3.24721 5.05979 3.54919 3.05179 6.98273 -19.2837
9 1 1.42251 6.64484 3.1977 26.156 16.7027 9.78198
43 2 3.12774 6.58475 3.22898 -3.70093 -8.46919 -22.9135
25 1 1.77625 3.47863 3.10972 -31.2115 4.00676 -11.6393
26 1 0.0137641 5.07611 3.37311 2.74963 -14.6592 5.13345
59 2 3.28223 3.38413 3.21983 24.975 17.3486 5.26044
32 2 1.63942 3.44903 4.77651 39.5215 -3.47732 3.86068
61 1 3.3519 3.48953 4.86136 -17.2615 -22.5624 -14.1786
16 2 1.68996 6.7288 5.03525 8.62562 14.3898 -20.8278
30 1 1.69352 5.0669 5.38042 -13.3971 31.9174 -18.0157
17 1 1.82539 3.59648 6.68296 -17.1342 -33.174 33.6971
19 2 0.214941 3.55961 6.69993 7.03573 4.96549 16.9567
34 1 3.5345 1.75708 0.123029 9.01024 -16.4327 -1.47791
36 2 5.12556 1.46349 0.0464228 -21.7103 8.18312 -11.9852
49 1 5.14216 3.21316 0.129531 -16.7653 25.1245 -10.1344
38 1 4.92772 1.55301 1.63832 -8.28625 -14.8519 -8.29354
7 2 6.62063 1.56933 1.56719 4.18479 12.368 8.26703
56 2 5.05366 3.23327 1.72735 32.922 -11.0779 -6.96056
44 2 4.9448 1.5286 3.43256 5.90914 4.54385 -13.4232
27 2 6.54978 3.36587 3.25097 -11.7174 32.3723 -28.0635
10 1 6.50948 1.67544 3.29926 -14.1505 -24.9265 15.6058
11 2 6.61128 0.0569993 3.22451 3.41918 3.97786 -15.603
57 1 4.84811 3.32715 3.37177 18.9578 -6.8337 18.0922
46 1 5.07454 1.63486 5.08268 -13.2522 0.671859 -11.4856
15 2 6.6137 1.77073 4.97905 -30.8632 7.61014 6.35638
52 2 5.24093 4.93112 0.192058 5.01627 25.675 -5.51314
50 1 3.66638 5.02289 0.144696 0.612579 20.8147 20.2095
5 1 6.69382 6.62893 1.32139 0.192468 -8.37189 -8.263
54 1 5.14743 4.89116 1.73904 24.9717 -9.04073 26.6382
40 2 4.99774 6.63541 1.66286 -37.579 -18.5744 5.96604
53 1 3.38589 3.41624 1.40775 1.55279 -1.1709 7.55549
60 2 4.97896 4.98979 3.62218 -12.0075 -13.9565 19.9403
41 1 4.95981 6.57664 3.46892 -8.07052 -19.2236 7.76858
62 1 5.18632 4.96238 5.31934 22.6535 -12.1389 6.77436
31 2 6.71863 5.14141 5.06572 8.25459 5.00583 -15.8966
63 2 3.45896 5.01588 5.16892 11.8803 -14.8754 18.1822
48 2 5.18982 6.72966 5.03133 -14.9459 -21.2039 2.77028
64 2 5.01281 3.36975 5.11307 20.2685 -13.1571 -19.6607
33 1 5.32424 6.67114 6.63056 5.22366 -13.0591 14.6658
35 2 3.50332 6.58771 6.68655 -7.16106 -20.9356 -14.4803